	reset_timestep  	0
	fix 			1 all nve
	dump 			vel all custom ${w_step} dump_${iseed}_${ifft}.vel vx vy vz
	dump 			vel all custom 16 dump_${iseed}_${ifft}.vel vx vy vz
	dump 			vel all custom 16 dump_1_${ifft}.vel vx vy vz
	dump 			vel all custom 16 dump_1_1.vel vx vy vz
	dump_modify 		vel sort id
	thermo_style 		custom step temp press vol
	thermo			5000
	timestep		${dt}
	timestep		0.0020000000000000000416
	run			${w_total}
	run			131072
Memory usage per processor = 1.80228 Mbytes
Step Temp Press Volume 
       0   0.08344576 0.0019348708    241.11803 
    5000  0.088260791 -0.031136987    241.11803 
   10000   0.08374789 0.0001932514    241.11803 
   15000  0.079914275  0.036547465    241.11803 
   20000  0.087925716 -0.035185165    241.11803 
   25000  0.084013679  0.008352835    241.11803 
   30000  0.084929745 -0.0058191802    241.11803 
   35000  0.088895097 -0.036471191    241.11803 
   40000  0.079722458  0.034142196    241.11803 
   45000  0.083592026 0.0064634033    241.11803 
   50000    0.0817668  0.020411815    241.11803 
   55000  0.084397594 -0.0018670019    241.11803 
   60000   0.08749074 -0.028329573    241.11803 
   65000   0.08111003  0.027200015    241.11803 
   70000  0.086093871 -0.011494304    241.11803 
   75000  0.085849323 -0.0070129531    241.11803 
   80000  0.083141767  0.014739152    241.11803 
   85000   0.08307037 0.0095044392    241.11803 
   90000  0.085227388 0.0027679775    241.11803 
   95000  0.081689547  0.023762835    241.11803 
  100000   0.08546821 -0.0061761096    241.11803 
  105000  0.083871859 0.0068659367    241.11803 
  110000  0.084116466 0.0050443002    241.11803 
  115000  0.083631994  0.006426225    241.11803 
  120000  0.077110106  0.059814671    241.11803 
  125000  0.092154044 -0.063089225    241.11803 
  130000  0.087235744 -0.027437815    241.11803 
  131072  0.085705852 -0.0084053225    241.11803 
Loop time of 66.7667 on 1 procs for 131072 steps with 256 atoms

Pair  time (%) = 56.5339 (84.6738)
Neigh time (%) = 0.00593233 (0.00888517)
Comm  time (%) = 4.01704 (6.01653)
Outpt time (%) = 4.36951 (6.54445)
Other time (%) = 1.8403 (2.75632)

Nlocal:    256 ave 256 max 256 min
Histogram: 1 0 0 0 0 0 0 0 0 0
Nghost:    1431 ave 1431 max 1431 min
Histogram: 1 0 0 0 0 0 0 0 0 0
Neighs:    11008 ave 11008 max 11008 min
Histogram: 1 0 0 0 0 0 0 0 0 0

Total # of neighbors = 11008
Ave neighs/atom = 43
Neighbor list builds = 5
Dangerous builds = 0
	unfix			1
	undump			vel

next ifft
jump lmp.in.sed.lj loop_fft

